-- Generated [
-- Format      : ECLIPSE keywords (grid geometry and properties) (ASCII)
-- Exported by : Petrel 2014.2 (64-bit) Schlumberger
-- User name   : YuyangLIU
-- Date        : Friday, September 01 2017 20:12:31
-- Project     : jmse.pet
-- Grid        : 3D grid
-- Generated ]

PINCH                                  -- Generated : Petrel
  /

NOECHO                                 -- Generated : Petrel

MAPUNITS                               -- Generated : Petrel
  METRES /

MAPAXES                                -- Generated : Petrel
  0.00 -1000.00 0.00 0.00 1000.00 0.00 /

GRIDUNIT                               -- Generated : Petrel
  METRES /

SPECGRID                               -- Generated : Petrel
  36 31 30 1 F /
--Format      : Irregular Grid in txt Format
LOD 2
1 2
3 5
6 7
8 10
11 13
14 15
16 17
18 20
21 23
24 25
26 28
29 30
LOD 1
1 10
11 20
21 30
Root
COORDSYS                               -- Generated : Petrel
  1 30 /

COORD                                  -- Generated : Petrel
  15672116.54 -4898074.63 2638.90 15672116.54 -4898074.63 2736.49 15672214.96 -4898074.63 2632.27 15672214.96 -4898074.63 2729.71
  15672313.37 -4898074.63 2625.66 15672313.37 -4898074.63 2722.96 15672411.78 -4898074.63 2619.20 15672411.78 -4898074.63 2716.33
  15672510.19 -4898074.63 2612.98 15672510.19 -4898074.63 2709.90 15672608.60 -4898074.63 2607.04 15672608.60 -4898074.63 2703.74
  15672707.02 -4898074.63 2601.28 15672707.02 -4898074.63 2697.72 15672805.43 -4898074.63 2595.51 15672805.43 -4898074.63 2691.67
  15672903.84 -4898074.63 2589.62 15672903.84 -4898074.63 2685.46 15673002.25 -4898074.63 2583.54 15673002.25 -4898074.63 2679.05
  15673100.66 -4898074.63 2577.26 15673100.66 -4898074.63 2672.41 15673199.08 -4898074.63 2570.79 15673199.08 -4898074.63 2665.58
  15673297.49 -4898074.63 2564.15 15673297.49 -4898074.63 2658.58 15673395.90 -4898074.63 2557.34 15673395.90 -4898074.63 2651.42
  15673494.31 -4898074.63 2550.38 15673494.31 -4898074.63 2644.14 15673592.73 -4898074.63 2543.29 15673592.73 -4898074.63 2636.77
  15673691.14 -4898074.63 2536.10 15673691.14 -4898074.63 2629.33 15673789.55 -4898074.63 2528.83 15673789.55 -4898074.63 2621.82
  15673887.96 -4898074.63 2521.49 15673887.96 -4898074.63 2614.26 15673986.37 -4898074.63 2514.12 15673986.37 -4898074.63 2606.65
  15674084.79 -4898074.63 2506.71 15674084.79 -4898074.63 2599.02 15674183.20 -4898074.63 2499.28 15674183.20 -4898074.63 2591.36
  15674281.61 -4898074.63 2491.83 15674281.61 -4898074.63 2583.70 15674380.02 -4898074.63 2484.36 15674380.02 -4898074.63 2576.02
  15674478.44 -4898074.63 2476.90 15674478.44 -4898074.63 2568.35 15674576.85 -4898074.63 2469.44 15674576.85 -4898074.63 2560.69
  15674675.26 -4898074.63 2462.03 15674675.26 -4898074.63 2553.08 15674773.67 -4898074.63 2454.69 15674773.67 -4898074.63 2545.54
  15674872.08 -4898074.63 2447.48 15674872.08 -4898074.63 2538.13 15674970.50 -4898074.63 2440.43 15674970.50 -4898074.63 2530.89
  15675068.91 -4898074.63 2433.55 15675068.91 -4898074.63 2523.82 15675167.32 -4898074.63 2426.78 15675167.32 -4898074.63 2516.87
  15675265.73 -4898074.63 2420.07 15675265.73 -4898074.63 2509.97 15675364.14 -4898074.63 2413.36 15675364.14 -4898074.63 2503.07
  15675462.56 -4898074.63 2406.61 15675462.56 -4898074.63 2496.15 15675560.97 -4898074.63 2399.86 15675560.97 -4898074.63 2489.22
  15675659.38 -4898074.63 2393.27 15675659.38 -4898074.63 2482.45 15672116.54 -4897974.87 2636.39 15672116.54 -4897974.87 2734.01
  15672214.96 -4897974.87 2629.79 15672214.96 -4897974.87 2727.27 15672313.37 -4897974.87 2623.20 15672313.37 -4897974.87 2720.53
  15672411.78 -4897974.87 2616.74 15672411.78 -4897974.87 2713.90 15672510.19 -4897974.87 2610.49 15672510.19 -4897974.87 2707.46
  15672608.60 -4897974.87 2604.49 15672608.60 -4897974.87 2701.23 15672707.02 -4897974.87 2598.60 15672707.02 -4897974.87 2695.10
  15672805.43 -4897974.87 2592.71 15672805.43 -4897974.87 2688.92 15672903.84 -4897974.87 2586.69 15672903.84 -4897974.87 2682.59
  15673002.25 -4897974.87 2580.48 15673002.25 -4897974.87 2676.05 15673100.66 -4897974.87 2574.06 15673100.66 -4897974.87 2669.28
  15673199.08 -4897974.87 2567.44 15673199.08 -4897974.87 2662.29 15673297.49 -4897974.87 2560.63 15673297.49 -4897974.87 2655.11
  15673395.90 -4897974.87 2553.62 15673395.90 -4897974.87 2647.75 15673494.31 -4897974.87 2546.46 15673494.31 -4897974.87 2640.26
  15673592.73 -4897974.87 2539.16 15673592.73 -4897974.87 2632.67 15673691.14 -4897974.87 2531.76 15673691.14 -4897974.87 2625.01
  15673789.55 -4897974.87 2524.27 15673789.55 -4897974.87 2617.28 15673887.96 -4897974.87 2516.73 15673887.96 -4897974.87 2609.50
  15673986.37 -4897974.87 2509.15 15673986.37 -4897974.87 2601.69 15674084.79 -4897974.87 2501.53 15674084.79 -4897974.87 2593.85
  15674183.20 -4897974.87 2493.91 15674183.20 -4897974.87 2585.99 15674281.61 -4897974.87 2486.26 15674281.61 -4897974.87 2578.13
  15674380.02 -4897974.87 2478.62 15674380.02 -4897974.87 2570.26 15674478.44 -4897974.87 2470.97 15674478.44 -4897974.87 2562.40
  15674576.85 -4897974.87 2463.34 15674576.85 -4897974.87 2554.57 15674675.26 -4897974.87 2455.76 15674675.26 -4897974.87 2546.78
  15674773.67 -4897974.87 2448.26 15674773.67 -4897974.87 2539.08 15674872.08 -4897974.87 2440.91 15674872.08 -4897974.87 2531.54
  15674970.50 -4897974.87 2433.76 15674970.50 -4897974.87 2524.19 15675068.91 -4897974.87 2426.82 15675068.91 -4897974.87 2517.06
  15675167.32 -4897974.87 2420.05 15675167.32 -4897974.87 2510.10 15675265.73 -4897974.87 2413.36 15675265.73 -4897974.87 2503.22
  15675364.14 -4897974.87 2406.71 15675364.14 -4897974.87 2496.39 15675462.56 -4897974.87 2400.08 15675462.56 -4897974.87 2489.58
  15675560.97 -4897974.87 2393.50 15675560.97 -4897974.87 2482.83 15675659.38 -4897974.87 2387.03 15675659.38 -4897974.87 2476.20
  15672116.54 -4897875.11 2633.85 15672116.54 -4897875.11 2731.49 15672214.96 -4897875.11 2627.25 15672214.96 -4897875.11 2724.75
  15672313.37 -4897875.11 2620.65 15672313.37 -4897875.11 2718.01 15672411.78 -4897875.11 2614.17 15672411.78 -4897875.11 2711.37
  15672510.19 -4897875.11 2607.90 15672510.19 -4897875.11 2704.90 15672608.60 -4897875.11 2601.81 15672608.60 -4897875.11 2698.60
  15672707.02 -4897875.11 2595.81 15672707.02 -4897875.11 2692.35 15672805.43 -4897875.11 2589.79 15672805.43 -4897875.11 2686.07
  15672903.84 -4897875.11 2583.66 15672903.84 -4897875.11 2679.63 15673002.25 -4897875.11 2577.33 15673002.25 -4897875.11 2672.97
  15673100.66 -4897875.11 2570.77 15673100.66 -4897875.11 2666.07 15673199.08 -4897875.11 2563.99 15673199.08 -4897875.11 2658.93
  15673297.49 -4897875.11 2557.00 15673297.49 -4897875.11 2651.57 15673395.90 -4897875.11 2549.80 15673395.90 -4897875.11 2644.02
  15673494.31 -4897875.11 2542.42 15673494.31 -4897875.11 2636.31 15673592.73 -4897875.11 2534.90 15673592.73 -4897875.11 2628.49
  15673691.14 -4897875.11 2527.28 15673691.14 -4897875.11 2620.59 15673789.55 -4897875.11 2519.57 15673789.55 -4897875.11 2612.63
  15673887.96 -4897875.11 2511.81 15673887.96 -4897875.11 2604.62 15673986.37 -4897875.11 2504.01 15673986.37 -4897875.11 2596.58
  15674084.79 -4897875.11 2496.19 15674084.79 -4897875.11 2588.52 15674183.20 -4897875.11 2488.37 15674183.20 -4897875.11 2580.47
  15674281.61 -4897875.11 2480.55 15674281.61 -4897875.11 2572.41 15674380.02 -4897875.11 2472.73 15674380.02 -4897875.11 2564.37
  15674478.44 -4897875.11 2464.91 15674478.44 -4897875.11 2556.33 15674576.85 -4897875.11 2457.13 15674576.85 -4897875.11 2548.33
  15674675.26 -4897875.11 2449.38 15674675.26 -4897875.11 2540.38 15674773.67 -4897875.11 2441.74 15674773.67 -4897875.11 2532.52
  15674872.08 -4897875.11 2434.25 15674872.08 -4897875.11 2524.84 15674970.50 -4897875.11 2426.99 15674970.50 -4897875.11 2517.38
  15675068.91 -4897875.11 2419.98 15675068.91 -4897875.11 2510.18 15675167.32 -4897875.11 2413.19 15675167.32 -4897875.11 2503.20
  15675265.73 -4897875.11 2406.51 15675265.73 -4897875.11 2496.33 15675364.14 -4897875.11 2399.88 15675364.14 -4897875.11 2489.53
  15675462.56 -4897875.11 2393.32 15675462.56 -4897875.11 2482.79 15675560.97 -4897875.11 2386.83 15675560.97 -4897875.11 2476.13
  15675659.38 -4897875.11 2380.40 15675659.38 -4897875.11 2469.53 15672116.54 -4897775.35 2631.26 15672116.54 -4897775.35 2728.90
  15672214.96 -4897775.35 2624.64 15672214.96 -4897775.35 2722.14 15672313.37 -4897775.35 2618.02 15672313.37 -4897775.35 2715.39
  15672411.78 -4897775.35 2611.51 15672411.78 -4897775.35 2708.72 15672510.19 -4897775.35 2605.19 15672510.19 -4897775.35 2702.23
  15672608.60 -4897775.35 2599.03 15672608.60 -4897775.35 2695.85 15672707.02 -4897775.35 2592.91 15672707.02 -4897775.35 2689.51
  15672805.43 -4897775.35 2586.78 15672805.43 -4897775.35 2683.11 15672903.84 -4897775.35 2580.52 15672903.84 -4897775.35 2676.57
  15673002.25 -4897775.35 2574.06 15673002.25 -4897775.35 2669.80 15673100.66 -4897775.35 2567.36 15673100.66 -4897775.35 2662.76
  15673199.08 -4897775.35 2560.42 15673199.08 -4897775.35 2655.47 15673297.49 -4897775.35 2553.25 15673297.49 -4897775.35 2647.94
  15673395.90 -4897775.35 2545.85 15673395.90 -4897775.35 2640.20 15673494.31 -4897775.35 2538.27 15673494.31 -4897775.35 2632.28
  15673592.73 -4897775.35 2530.53 15673592.73 -4897775.35 2624.23 15673691.14 -4897775.35 2522.67 15673691.14 -4897775.35 2616.09
  15673789.55 -4897775.35 2514.74 15673789.55 -4897775.35 2607.88 15673887.96 -4897775.35 2506.75 15673887.96 -4897775.35 2599.62
  15673986.37 -4897775.35 2498.73 15673986.37 -4897775.35 2591.35 15674084.79 -4897775.35 2490.72 15674084.79 -4897775.35 2583.08
  15674183.20 -4897775.35 2482.71 15674183.20 -4897775.35 2574.82 15674281.61 -4897775.35 2474.71 15674281.61 -4897775.35 2566.58
  15674380.02 -4897775.35 2466.74 15674380.02 -4897775.35 2558.37 15674478.44 -4897775.35 2458.79 15674478.44 -4897775.35 2550.20
  15674576.85 -4897775.35 2450.88 15674576.85 -4897775.35 2542.06 15674675.26 -4897775.35 2443.02 15674675.26 -4897775.35 2533.98
  15674773.67 -4897775.35 2435.24 15674773.67 -4897775.35 2525.99 15674872.08 -4897775.35 2427.62 15674872.08 -4897775.35 2518.17
  15674970.50 -4897775.35 2420.25 15674970.50 -4897775.35 2510.59 15675068.91 -4897775.35 2413.16 15675068.91 -4897775.35 2503.32
  15675167.32 -4897775.35 2406.32 15675167.32 -4897775.35 2496.28 15675265.73 -4897775.35 2399.61 15675265.73 -4897775.35 2489.39
  15675364.14 -4897775.35 2392.98 15675364.14 -4897775.35 2482.58 15675462.56 -4897775.35 2386.44 15675462.56 -4897775.35 2475.87
  15675560.97 -4897775.35 2379.98 15675560.97 -4897775.35 2469.24 15675659.38 -4897775.35 2373.55 15675659.38 -4897775.35 2462.65
  15672116.54 -4897675.59 2628.59 15672116.54 -4897675.59 2726.20 15672214.96 -4897675.59 2621.96 15672214.96 -4897675.59 2719.45
  15672313.37 -4897675.59 2615.33 15672313.37 -4897675.59 2712.70 15672411.78 -4897675.59 2608.77 15672411.78 -4897675.59 2705.98
  15672510.19 -4897675.59 2602.33 15672510.19 -4897675.59 2699.38 15672608.60 -4897675.59 2596.06 15672608.60 -4897675.59 2692.92
  15672707.02 -4897675.59 2589.86 15672707.02 -4897675.59 2686.50 15672805.43 -4897675.59 2583.63 15672805.43 -4897675.59 2680.03
  15672903.84 -4897675.59 2577.26 15672903.84 -4897675.59 2673.38 15673002.25 -4897675.59 2570.66 15673002.25 -4897675.59 2666.49
  15673100.66 -4897675.59 2563.81 15673100.66 -4897675.59 2659.33 15673199.08 -4897675.59 2556.72 15673199.08 -4897675.59 2651.90
  15673297.49 -4897675.59 2549.37 15673297.49 -4897675.59 2644.21 15673395.90 -4897675.59 2541.78 15673395.90 -4897675.59 2636.28
  15673494.31 -4897675.59 2533.99 15673494.31 -4897675.59 2628.16 15673592.73 -4897675.59 2526.03 15673592.73 -4897675.59 2619.88
  15673691.14 -4897675.59 2517.95 15673691.14 -4897675.59 2611.49 15673789.55 -4897675.59 2509.78 15673789.55 -4897675.59 2603.02
  15673887.96 -4897675.59 2501.56 15673887.96 -4897675.59 2594.51 15673986.37 -4897675.59 2493.33 15673986.37 -4897675.59 2586.01
  15674084.79 -4897675.59 2485.12 15674084.79 -4897675.59 2577.52 15674183.20 -4897675.59 2476.93 15674183.20 -4897675.59 2569.06
  15674281.61 -4897675.59 2468.79 15674281.61 -4897675.59 2560.66 15674380.02 -4897675.59 2460.69 15674380.02 -4897675.59 2552.31
  15674478.44 -4897675.59 2452.65 15674478.44 -4897675.59 2544.03 15674576.85 -4897675.59 2444.66 15674576.85 -4897675.59 2535.81
  15674675.26 -4897675.59 2436.72 15674675.26 -4897675.59 2527.65 15674773.67 -4897675.59 2428.86 15674773.67 -4897675.59 2519.57
  15674872.08 -4897675.59 2421.15 15674872.08 -4897675.59 2511.64 15674970.50 -4897675.59 2413.67 15674970.50 -4897675.59 2503.96
  15675068.91 -4897675.59 2406.48 15675068.91 -4897675.59 2496.58 15675167.32 -4897675.59 2399.54 15675167.32 -4897675.59 2489.45
  15675265.73 -4897675.59 2392.73 15675265.73 -4897675.59 2482.46 15675364.14 -4897675.59 2386.06 15675364.14 -4897675.59 2475.61
  15675462.56 -4897675.59 2379.50 15675462.56 -4897675.59 2468.88 15675560.97 -4897675.59 2373.02 15675560.97 -4897675.59 2462.24
  15675659.38 -4897675.59 2366.56 15675659.38 -4897675.59 2455.62 15672116.54 -4897575.83 2625.80 15672116.54 -4897575.83 2723.38
  15672214.96 -4897575.83 2619.16 15672214.96 -4897575.83 2716.63 15672313.37 -4897575.83 2612.52 15672313.37 -4897575.83 2709.86
  15672411.78 -4897575.83 2605.89 15672411.78 -4897575.83 2703.09 15672510.19 -4897575.83 2599.37 15672510.19 -4897575.83 2696.41
  15672608.60 -4897575.83 2593.00 15672608.60 -4897575.83 2689.86 15672707.02 -4897575.83 2586.70 15672707.02 -4897575.83 2683.36
  15672805.43 -4897575.83 2580.35 15672805.43 -4897575.83 2676.79 15672903.84 -4897575.83 2573.85 15672903.84 -4897575.83 2670.03
  15673002.25 -4897575.83 2567.11 15673002.25 -4897575.83 2663.03 15673100.66 -4897575.83 2560.12 15673100.66 -4897575.83 2655.75
  15673199.08 -4897575.83 2552.87 15673199.08 -4897575.83 2648.18 15673297.49 -4897575.83 2545.35 15673297.49 -4897575.83 2640.33
  15673395.90 -4897575.83 2537.58 15673395.90 -4897575.83 2632.23 15673494.31 -4897575.83 2529.59 15673494.31 -4897575.83 2623.90
  15673592.73 -4897575.83 2521.41 15673592.73 -4897575.83 2615.39 15673691.14 -4897575.83 2513.10 15673691.14 -4897575.83 2606.75
  15673789.55 -4897575.83 2504.70 15673789.55 -4897575.83 2598.03 15673887.96 -4897575.83 2496.26 15673887.96 -4897575.83 2589.28
  15673986.37 -4897575.83 2487.82 15673986.37 -4897575.83 2580.53 15674084.79 -4897575.83 2479.41 15674084.79 -4897575.83 2571.83
  15674183.20 -4897575.83 2471.06 15674183.20 -4897575.83 2563.19 15674281.61 -4897575.83 2462.78 15674281.61 -4897575.83 2554.64
  15674380.02 -4897575.83 2454.60 15674380.02 -4897575.83 2546.20 15674478.44 -4897575.83 2446.50 15674478.44 -4897575.83 2537.85
  15674576.85 -4897575.83 2438.49 15674576.85 -4897575.83 2529.59 15674675.26 -4897575.83 2430.54 15674675.26 -4897575.83 2521.42
  15674773.67 -4897575.83 2422.66 15674773.67 -4897575.83 2513.31 15674872.08 -4897575.83 2414.90 15674872.08 -4897575.83 2505.33
  15674970.50 -4897575.83 2407.31 15674970.50 -4897575.83 2497.55 15675068.91 -4897575.83 2400.00 15675068.91 -4897575.83 2490.04
  15675167.32 -4897575.83 2392.92 15675167.32 -4897575.83 2482.77 15675265.73 -4897575.83 2386.00 15675265.73 -4897575.83 2475.67
  15675364.14 -4897575.83 2379.24 15675364.14 -4897575.83 2468.74 15675462.56 -4897575.83 2372.60 15675462.56 -4897575.83 2461.93
  15675560.97 -4897575.83 2366.05 15675560.97 -4897575.83 2455.22 15675659.38 -4897575.83 2359.52 15675659.38 -4897575.83 2448.54
  15672116.54 -4897476.07 2622.88 15672116.54 -4897476.07 2720.40 15672214.96 -4897476.07 2616.22 15672214.96 -4897476.07 2713.62
  15672313.37 -4897476.07 2609.53 15672313.37 -4897476.07 2706.83 15672411.78 -4897476.07 2602.86 15672411.78 -4897476.07 2700.03
  15672510.19 -4897476.07 2596.30 15672510.19 -4897476.07 2693.32 15672608.60 -4897476.07 2589.85 15672608.60 -4897476.07 2686.70
  15672707.02 -4897476.07 2583.43 15672707.02 -4897476.07 2680.09 15672805.43 -4897476.07 2576.95 15672805.43 -4897476.07 2673.40
  15672903.84 -4897476.07 2570.30 15672903.84 -4897476.07 2666.52 15673002.25 -4897476.07 2563.42 15673002.25 -4897476.07 2659.39
  15673100.66 -4897476.07 2556.29 15673100.66 -4897476.07 2651.99 15673199.08 -4897476.07 2548.88 15673199.08 -4897476.07 2644.29
  15673297.49 -4897476.07 2541.19 15673297.49 -4897476.07 2636.28 15673395.90 -4897476.07 2533.23 15673395.90 -4897476.07 2627.99
  15673494.31 -4897476.07 2525.03 15673494.31 -4897476.07 2619.46 15673592.73 -4897476.07 2516.64 15673592.73 -4897476.07 2610.73
  15673691.14 -4897476.07 2508.11 15673691.14 -4897476.07 2601.85 15673789.55 -4897476.07 2499.49 15673789.55 -4897476.07 2592.89
  15673887.96 -4897476.07 2490.82 15673887.96 -4897476.07 2583.89 15673986.37 -4897476.07 2482.18 15673986.37 -4897476.07 2574.92
  15674084.79 -4897476.07 2473.58 15674084.79 -4897476.07 2566.01 15674183.20 -4897476.07 2465.08 15674183.20 -4897476.07 2557.21
  15674281.61 -4897476.07 2456.70 15674281.61 -4897476.07 2548.53 15674380.02 -4897476.07 2448.46 15674380.02 -4897476.07 2540.01
  15674478.44 -4897476.07 2440.35 15674478.44 -4897476.07 2531.65 15674576.85 -4897476.07 2432.36 15674576.85 -4897476.07 2523.41
  15674675.26 -4897476.07 2424.46 15674675.26 -4897476.07 2515.26 15674773.67 -4897476.07 2416.61 15674773.67 -4897476.07 2507.19
  15674872.08 -4897476.07 2408.83 15674872.08 -4897476.07 2499.20 15674970.50 -4897476.07 2401.17 15674970.50 -4897476.07 2491.33
  15675068.91 -4897476.07 2393.72 15675068.91 -4897476.07 2483.68 15675167.32 -4897476.07 2386.48 15675167.32 -4897476.07 2476.26
  15675265.73 -4897476.07 2379.43 15675265.73 -4897476.07 2469.03 15675364.14 -4897476.07 2372.54 15675364.14 -4897476.07 2461.97
  15675462.56 -4897476.07 2365.79 15675462.56 -4897476.07 2455.06 15675560.97 -4897476.07 2359.13 15675560.97 -4897476.07 2448.25
  15675659.38 -4897476.07 2352.50 15675659.38 -4897476.07 2441.47 15672116.54 -4897376.30 2619.83 15672116.54 -4897376.30 2717.27
  15672214.96 -4897376.30 2613.14 15672214.96 -4897376.30 2710.47 15672313.37 -4897376.30 2606.44 15672313.37 -4897376.30 2703.66
  15672411.78 -4897376.30 2599.75 15672411.78 -4897376.30 2696.85 15672510.19 -4897376.30 2593.15 15672510.19 -4897376.30 2690.11
  15672608.60 -4897376.30 2586.61 15672608.60 -4897376.30 2683.41 15672707.02 -4897376.30 2580.06 15672707.02 -4897376.30 2676.69
  15672805.43 -4897376.30 2573.42 15672805.43 -4897376.30 2669.86 15672903.84 -4897376.30 2566.61 15672903.84 -4897376.30 2662.84
  15673002.25 -4897376.30 2559.59 15673002.25 -4897376.30 2655.58 15673100.66 -4897376.30 2552.30 15673100.66 -4897376.30 2648.04
  15673199.08 -4897376.30 2544.73 15673199.08 -4897376.30 2640.19 15673297.49 -4897376.30 2536.86 15673297.49 -4897376.30 2632.02
  15673395.90 -4897376.30 2528.71 15673395.90 -4897376.30 2623.55 15673494.31 -4897376.30 2520.31 15673494.31 -4897376.30 2614.81
  15673592.73 -4897376.30 2511.71 15673592.73 -4897376.30 2605.86 15673691.14 -4897376.30 2502.97 15673691.14 -4897376.30 2596.76
  15673789.55 -4897376.30 2494.13 15673789.55 -4897376.30 2587.56 15673887.96 -4897376.30 2485.26 15673887.96 -4897376.30 2578.34
  15673986.37 -4897376.30 2476.42 15673986.37 -4897376.30 2569.15 15674084.79 -4897376.30 2467.66 15674084.79 -4897376.30 2560.05
  15674183.20 -4897376.30 2459.02 15674183.20 -4897376.30 2551.10 15674281.61 -4897376.30 2450.54 15674281.61 -4897376.30 2542.32
  15674380.02 -4897376.30 2442.26 15674380.02 -4897376.30 2533.75 15674478.44 -4897376.30 2434.17 15674478.44 -4897376.30 2525.39
  15674576.85 -4897376.30 2426.24 15674576.85 -4897376.30 2517.21 15674675.26 -4897376.30 2418.41 15674675.26 -4897376.30 2509.13
  15674773.67 -4897376.30 2410.62 15674773.67 -4897376.30 2501.12 15674872.08 -4897376.30 2402.86 15674872.08 -4897376.30 2493.14
  15674970.50 -4897376.30 2395.16 15674970.50 -4897376.30 2485.23 15675068.91 -4897376.30 2387.58 15675068.91 -4897376.30 2477.46
  15675167.32 -4897376.30 2380.18 15675167.32 -4897376.30 2469.88 15675265.73 -4897376.30 2372.98 15675265.73 -4897376.30 2462.51
  15675364.14 -4897376.30 2365.95 15675364.14 -4897376.30 2455.32 15675462.56 -4897376.30 2359.07 15675462.56 -4897376.30 2448.28
  15675560.97 -4897376.30 2352.28 15675560.97 -4897376.30 2441.33 15675659.38 -4897376.30 2345.52 15675659.38 -4897376.30 2434.43
  15672116.54 -4897276.54 2616.68 15672116.54 -4897276.54 2714.01 15672214.96 -4897276.54 2609.98 15672214.96 -4897276.54 2707.21
  15672313.37 -4897276.54 2603.28 15672313.37 -4897276.54 2700.40 15672411.78 -4897276.54 2596.58 15672411.78 -4897276.54 2693.58
  15672510.19 -4897276.54 2589.92 15672510.19 -4897276.54 2686.80 15672608.60 -4897276.54 2583.28 15672608.60 -4897276.54 2680.01
  15672707.02 -4897276.54 2576.58 15672707.02 -4897276.54 2673.15 15672805.43 -4897276.54 2569.78 15672805.43 -4897276.54 2666.17
  15672903.84 -4897276.54 2562.80 15672903.84 -4897276.54 2658.99 15673002.25 -4897276.54 2555.60 15673002.25 -4897276.54 2651.57
  15673100.66 -4897276.54 2548.14 15673100.66 -4897276.54 2643.87 15673199.08 -4897276.54 2540.40 15673199.08 -4897276.54 2635.85
  15673297.49 -4897276.54 2532.34 15673297.49 -4897276.54 2627.51 15673395.90 -4897276.54 2524.00 15673395.90 -4897276.54 2618.85
  15673494.31 -4897276.54 2515.40 15673494.31 -4897276.54 2609.92 15673592.73 -4897276.54 2506.61 15673592.73 -4897276.54 2600.76
  15673691.14 -4897276.54 2497.66 15673691.14 -4897276.54 2591.45 15673789.55 -4897276.54 2488.63 15673789.55 -4897276.54 2582.04
  15673887.96 -4897276.54 2479.57 15673887.96 -4897276.54 2572.61 15673986.37 -4897276.54 2470.55 15673986.37 -4897276.54 2563.23
  15674084.79 -4897276.54 2461.63 15674084.79 -4897276.54 2553.96 15674183.20 -4897276.54 2452.87 15674183.20 -4897276.54 2544.87
  15674281.61 -4897276.54 2444.32 15674281.61 -4897276.54 2536.01 15674380.02 -4897276.54 2436.01 15674380.02 -4897276.54 2527.41
  15674478.44 -4897276.54 2427.95 15674478.44 -4897276.54 2519.07 15674576.85 -4897276.54 2420.09 15674576.85 -4897276.54 2510.95
  15674675.26 -4897276.54 2412.35 15674675.26 -4897276.54 2502.96 15674773.67 -4897276.54 2404.64 15674773.67 -4897276.54 2495.02
  15674872.08 -4897276.54 2396.91 15674872.08 -4897276.54 2487.08 15674970.50 -4897276.54 2389.17 15674970.50 -4897276.54 2479.13
  15675068.91 -4897276.54 2381.49 15675068.91 -4897276.54 2471.27 15675167.32 -4897276.54 2373.97 15675167.32 -4897276.54 2463.57
  15675265.73 -4897276.54 2366.62 15675265.73 -4897276.54 2456.06 15675364.14 -4897276.54 2359.45 15675364.14 -4897276.54 2448.73
  15675462.56 -4897276.54 2352.43 15675462.56 -4897276.54 2441.56 15675560.97 -4897276.54 2345.49 15675560.97 -4897276.54 2434.48
  15675659.38 -4897276.54 2338.59 15675659.38 -4897276.54 2427.44 15672116.54 -4897176.78 2613.47 15672116.54 -4897176.78 2710.67
  15672214.96 -4897176.78 2606.76 15672214.96 -4897176.78 2703.86 15672313.37 -4897176.78 2600.07 15672313.37 -4897176.78 2697.06
  15672411.78 -4897176.78 2593.36 15672411.78 -4897176.78 2690.24 15672510.19 -4897176.78 2586.63 15672510.19 -4897176.78 2683.38
  15672608.60 -4897176.78 2579.86 15672608.60 -4897176.78 2676.47 15672707.02 -4897176.78 2573.00 15672707.02 -4897176.78 2669.46
  15672805.43 -4897176.78 2566.02 15672805.43 -4897176.78 2662.30 15672903.84 -4897176.78 2558.85 15672903.84 -4897176.78 2654.94
  15673002.25 -4897176.78 2551.46 15673002.25 -4897176.78 2647.34 15673100.66 -4897176.78 2543.81 15673100.66 -4897176.78 2639.46
  15673199.08 -4897176.78 2535.87 15673199.08 -4897176.78 2631.25 15673297.49 -4897176.78 2527.63 15673297.49 -4897176.78 2622.73
  15673395.90 -4897176.78 2519.09 15673395.90 -4897176.78 2613.88 15673494.31 -4897176.78 2510.31 15673494.31 -4897176.78 2604.76
  15673592.73 -4897176.78 2501.33 15673592.73 -4897176.78 2595.42 15673691.14 -4897176.78 2492.21 15673691.14 -4897176.78 2585.92
  15673789.55 -4897176.78 2483.01 15673789.55 -4897176.78 2576.33 15673887.96 -4897176.78 2473.78 15673887.96 -4897176.78 2566.72
  15673986.37 -4897176.78 2464.61 15673986.37 -4897176.78 2557.18 15674084.79 -4897176.78 2455.55 15674084.79 -4897176.78 2547.76
  15674183.20 -4897176.78 2446.68 15674183.20 -4897176.78 2538.55 15674281.61 -4897176.78 2438.05 15674281.61 -4897176.78 2529.61
  15674380.02 -4897176.78 2429.73 15674380.02 -4897176.78 2520.99 15674478.44 -4897176.78 2421.70 15674478.44 -4897176.78 2512.68
  15674576.85 -4897176.78 2413.90 15674576.85 -4897176.78 2504.61 15674675.26 -4897176.78 2406.21 15674675.26 -4897176.78 2496.69
  15674773.67 -4897176.78 2398.56 15674773.67 -4897176.78 2488.81 15674872.08 -4897176.78 2390.86 15674872.08 -4897176.78 2480.90
  15674970.50 -4897176.78 2383.10 15674970.50 -4897176.78 2472.94 15675068.91 -4897176.78 2375.37 15675068.91 -4897176.78 2465.03
  15675167.32 -4897176.78 2367.76 15675167.32 -4897176.78 2457.25 15675265.73 -4897176.78 2360.30 15675265.73 -4897176.78 2449.64
  15675364.14 -4897176.78 2353.01 15675364.14 -4897176.78 2442.19 15675462.56 -4897176.78 2345.85 15675462.56 -4897176.78 2434.89
  15675560.97 -4897176.78 2338.77 15675560.97 -4897176.78 2427.68 15675659.38 -4897176.78 2331.72 15675659.38 -4897176.78 2420.50
  15672116.54 -4897077.02 2610.22 15672116.54 -4897077.02 2707.27 15672214.96 -4897077.02 2603.51 15672214.96 -4897077.02 2700.45
  15672313.37 -4897077.02 2596.81 15672313.37 -4897077.02 2693.65 15672411.78 -4897077.02 2590.06 15672411.78 -4897077.02 2686.79
  15672510.19 -4897077.02 2583.24 15672510.19 -4897077.02 2679.84 15672608.60 -4897077.02 2576.33 15672608.60 -4897077.02 2672.79
  15672707.02 -4897077.02 2569.31 15672707.02 -4897077.02 2665.61 15672805.43 -4897077.02 2562.13 15672805.43 -4897077.02 2658.26
  15672903.84 -4897077.02 2554.75 15672903.84 -4897077.02 2650.70 15673002.25 -4897077.02 2547.15 15673002.25 -4897077.02 2642.89
  15673100.66 -4897077.02 2539.29 15673100.66 -4897077.02 2634.79 15673199.08 -4897077.02 2531.14 15673199.08 -4897077.02 2626.38
  15673297.49 -4897077.02 2522.70 15673297.49 -4897077.02 2617.65 15673395.90 -4897077.02 2513.99 15673395.90 -4897077.02 2608.62
  15673494.31 -4897077.02 2505.04 15673494.31 -4897077.02 2599.35 15673592.73 -4897077.02 2495.91 15673592.73 -4897077.02 2589.86
  15673691.14 -4897077.02 2486.65 15673691.14 -4897077.02 2580.21 15673789.55 -4897077.02 2477.30 15673789.55 -4897077.02 2570.48
  15673887.96 -4897077.02 2467.94 15673887.96 -4897077.02 2560.73 15673986.37 -4897077.02 2458.63 15673986.37 -4897077.02 2551.04
  15674084.79 -4897077.02 2449.45 15674084.79 -4897077.02 2541.50 15674183.20 -4897077.02 2440.48 15674183.20 -4897077.02 2532.19
  15674281.61 -4897077.02 2431.80 15674281.61 -4897077.02 2523.19 15674380.02 -4897077.02 2423.46 15674380.02 -4897077.02 2514.54
  15674478.44 -4897077.02 2415.44 15674478.44 -4897077.02 2506.25 15674576.85 -4897077.02 2407.65 15674576.85 -4897077.02 2498.20
  15674675.26 -4897077.02 2400.00 15674675.26 -4897077.02 2490.31 15674773.67 -4897077.02 2392.36 15674773.67 -4897077.02 2482.45
  15674872.08 -4897077.02 2384.67 15674872.08 -4897077.02 2474.56 15674970.50 -4897077.02 2376.92 15674970.50 -4897077.02 2466.61
  15675068.91 -4897077.02 2369.17 15675068.91 -4897077.02 2458.69 15675167.32 -4897077.02 2361.52 15675167.32 -4897077.02 2450.88
  15675265.73 -4897077.02 2354.00 15675265.73 -4897077.02 2443.21 15675364.14 -4897077.02 2346.61 15675364.14 -4897077.02 2435.68
  15675462.56 -4897077.02 2339.33 15675462.56 -4897077.02 2428.27 15675560.97 -4897077.02 2332.12 15675560.97 -4897077.02 2420.93
  15675659.38 -4897077.02 2324.93 15675659.38 -4897077.02 2413.62 15672116.54 -4896977.26 2606.97 15672116.54 -4896977.26 2703.84
  15672214.96 -4896977.26 2600.23 15672214.96 -4896977.26 2697.00 15672313.37 -4896977.26 2593.50 15672313.37 -4896977.26 2690.16
  15672411.78 -4896977.26 2586.69 15672411.78 -4896977.26 2683.23 15672510.19 -4896977.26 2579.76 15672510.19 -4896977.26 2676.17
  15672608.60 -4896977.26 2572.71 15672608.60 -4896977.26 2668.98 15672707.02 -4896977.26 2565.51 15672707.02 -4896977.26 2661.62
  15672805.43 -4896977.26 2558.13 15672805.43 -4896977.26 2654.06 15672903.84 -4896977.26 2550.54 15672903.84 -4896977.26 2646.28
  15673002.25 -4896977.26 2542.71 15673002.25 -4896977.26 2638.24 15673100.66 -4896977.26 2534.61 15673100.66 -4896977.26 2629.91
  15673199.08 -4896977.26 2526.24 15673199.08 -4896977.26 2621.26 15673297.49 -4896977.26 2517.60 15673297.49 -4896977.26 2612.32
  15673395.90 -4896977.26 2508.73 15673395.90 -4896977.26 2603.13 15673494.31 -4896977.26 2499.66 15673494.31 -4896977.26 2593.75
  15673592.73 -4896977.26 2490.42 15673592.73 -4896977.26 2584.15 15673691.14 -4896977.26 2481.04 15673691.14 -4896977.26 2574.39
  15673789.55 -4896977.26 2471.58 15673789.55 -4896977.26 2564.54 15673887.96 -4896977.26 2462.10 15673887.96 -4896977.26 2554.68
  15673986.37 -4896977.26 2452.69 15673986.37 -4896977.26 2544.89 15674084.79 -4896977.26 2443.41 15674084.79 -4896977.26 2535.25
  15674183.20 -4896977.26 2434.36 15674183.20 -4896977.26 2525.85 15674281.61 -4896977.26 2425.61 15674281.61 -4896977.26 2516.78
  15674380.02 -4896977.26 2417.23 15674380.02 -4896977.26 2508.11 15674478.44 -4896977.26 2409.20 15674478.44 -4896977.26 2499.80
  15674576.85 -4896977.26 2401.41 15674576.85 -4896977.26 2491.75 15674675.26 -4896977.26 2393.75 15674675.26 -4896977.26 2483.86
  15674773.67 -4896977.26 2386.10 15674773.67 -4896977.26 2476.00 15674872.08 -4896977.26 2378.40 15674872.08 -4896977.26 2468.11
  15674970.50 -4896977.26 2370.66 15674970.50 -4896977.26 2460.19 15675068.91 -4896977.26 2362.93 15675068.91 -4896977.26 2452.29
  15675167.32 -4896977.26 2355.27 15675167.32 -4896977.26 2444.47 15675265.73 -4896977.26 2347.70 15675265.73 -4896977.26 2436.77
  15675364.14 -4896977.26 2340.24 15675364.14 -4896977.26 2429.18 15675462.56 -4896977.26 2332.87 15675462.56 -4896977.26 2421.69
  15675560.97 -4896977.26 2325.55 15675560.97 -4896977.26 2414.25 15675659.38 -4896977.26 2318.25 15675659.38 -4896977.26 2406.83